LAMMPS data file via write_data, version 30 Jul 2021, timestep = 1

100 atoms
1 atom types

0 30 xlo xhi
0 30 ylo yhi
0 30 zlo zhi

Masses

1 1

Atoms # full

1 0 1 0 2.4318430630638463 11.986360914067532 4.767882733032052 0 0 0
2 0 1 0 28.742141578692078 9.173513077745918 9.234297675655363 0 0 0
3 0 1 0 1.7208898401450783 2.9955433183328912 6.096551220909018 0 0 0
4 0 1 0 20.706493985236854 14.044409875778673 4.396782212144128 0 0 0
5 0 1 0 15.458569599063402 12.179251458579326 6.6792643427286595 0 0 0
6 0 1 0 28.39580824058308 8.34909947977825 13.314956633055097 0 0 0
7 0 1 0 14.476131757011698 0.3464400956157782 2.6186870143835836 0 0 0
8 0 1 0 17.104065645068914 8.0312966732454 12.003187235446267 0 0 0
9 0 1 0 17.567866145431935 3.126306274498955 13.82955550394466 0 0 0
10 0 1 0 27.175211248535295 13.775454132713122 14.057608509463076 0 0 0
11 0 1 0 16.22621854591473 14.055101188856689 4.085681114385687 0 0 0
12 0 1 0 18.553569060076757 9.835192710084465 0.08387838959874509 0 0 0
13 0 1 0 17.878537153768605 4.573943388915595 14.266537504394789 0 0 0
14 0 1 0 11.142533878396513 12.566894210207693 11.79099096068693 0 0 0
15 0 1 0 24.332849152541183 2.1957067596706126 3.24350978398859 0 0 0
16 0 1 0 3.6689394962363595 13.866113244493544 7.765300203005457 0 0 0
17 0 1 0 29.17790920901015 13.120075833573972 9.114534877759654 0 0 0
18 0 1 0 27.658492912379323 6.290378359281634 2.3890844464251235 0 0 0
19 0 1 0 19.375875713013055 0.3431086104098282 6.626415157982342 0 0 0
20 0 1 0 24.436315505037232 1.1546931607437754 26.927952620632926 0 0 0
21 0 1 0 28.09969497756087 11.573487865539962 25.610556130116134 0 0 0
22 0 1 0 22.83021286727405 7.387660274928278 24.406240719559715 0 0 0
23 0 1 0 5.68777364012216 14.411569533129954 25.249143315129515 0 0 0
24 0 1 0 8.169910720628645 1.6894816056310578 15.117345841190472 0 0 0
25 0 1 0 7.231552888281435 10.709393346081205 22.773967586818134 0 0 0
26 0 1 0 22.073231652413135 4.80438210759516 17.25008235184945 0 0 0
27 0 1 0 23.83191617849838 13.015212022240839 16.668457801765044 0 0 0
28 0 1 0 2.806131473186487 2.651669845288466 16.615089763242327 0 0 0
29 0 1 0 22.119913823958445 9.391639269605111 15.28120425310042 0 0 0
30 0 1 0 1.1998818587511226 6.414400030120461 16.82130623460808 0 0 0
31 0 1 0 6.718639506361745 0.17418342184935856 17.50077102216928 0 0 0
32 0 1 0 2.27265074489296 6.44106941597586 15.053674306279827 0 0 0
33 0 1 0 23.33935479789011 14.536088139068376 18.03335332220111 0 0 0
34 0 1 0 28.042489480247017 10.120694511626239 28.51265690220178 0 0 0
35 0 1 0 25.683973695004347 0.5458919380539525 24.80580287277969 0 0 0
36 0 1 0 1.1288828082051514 13.133357503979168 22.33956937787103 0 0 0
37 0 1 0 29.66088923609857 0.5653911086569499 22.52836319735663 0 0 0
38 0 1 0 4.200257972907395 3.7357506545892685 26.76125168183877 0 0 0
39 0 1 0 12.750198567635472 2.5873262493812135 15.19227335005639 0 0 0
40 0 1 0 3.4023980206821105 4.103533604230514 28.08928630225793 0 0 0
41 0 1 0 16.63488204899937 12.462597532413247 28.876727269439364 0 0 0
42 0 1 0 3.9328660135776112 9.679090198911304 16.46897310226642 0 0 0
43 0 1 0 29.08386450683878 22.510766439377687 8.451546620787841 0 0 0
44 0 1 0 25.14405558125305 16.142154119975007 11.18429441991462 0 0 0
45 0 1 0 26.616878861848672 19.883031090667018 4.1035408406069225 0 0 0
46 0 1 0 16.299777359841286 20.358086852523538 8.365730363114611 0 0 0
47 0 1 0 12.351697381749608 24.97789506566613 13.482368650605142 0 0 0
48 0 1 0 2.1340875337524743 17.609179777842566 7.484526199979952 0 0 0
49 0 1 0 3.805094069710511 22.216029624555272 4.809899900485715 0 0 0
50 0 1 0 6.770274265096651 27.999573479406337 8.83146838230615 0 0 0
51 0 1 0 20.489101419453092 20.32755674809569 5.246265244319227 0 0 0
52 0 1 0 3.9799612732510834 21.209119530957715 1.6719568062908747 0 0 0
53 0 1 0 20.578043330729958 15.174259578424627 3.78073458270204 0 0 0
54 0 1 0 9.406251986234567 20.877132644353964 1.9683536570371842 0 0 0
55 0 1 0 5.053089770978825 27.279780841097136 1.276596319524849 0 0 0
56 0 1 0 5.754342254136848 23.23026527801075 11.068527526719741 0 0 0
57 0 1 0 10.841034739669894 15.270869631912031 7.505903545536988 0 0 0
58 0 1 0 14.736369817860597 24.167528783049214 13.656256708156437 0 0 0
59 0 1 0 26.569286234010608 29.99373501632071 14.704419302150804 0 0 0
60 0 1 0 22.224555305309853 28.101016342686965 3.781671539778668 0 0 0
61 0 1 0 26.572794549433883 28.957992335296233 6.977179323778105 0 0 0
62 0 1 0 21.185076265216374 17.576789491612832 3.1009855368644863 0 0 0
63 0 1 0 28.084400993811155 24.527502984054152 3.742652998186021 0 0 0
64 0 1 0 22.76894051244899 27.58319273012839 0.7202152678371478 0 0 0
65 0 1 0 14.658006538943392 27.115900021566034 6.9316624602916015 0 0 0
66 0 1 0 14.168927783225163 27.16925266532658 3.6295461438733834 0 0 0
67 0 1 0 25.82644449352587 25.052602689272074 9.093398595737945 0 0 0
68 0 1 0 6.538194397715011 27.433242396187616 0.5049527252581681 0 0 0
69 0 1 0 7.416337797146448 26.38935664034884 5.917054342998683 0 0 0
70 0 1 0 27.93234277885982 18.88508429698883 1.6117794912363308 0 0 0
71 0 1 0 21.155217467413852 25.739974824590597 11.756876894159651 0 0 0
72 0 1 0 17.829960141251775 28.14009401860651 0.560170719660898 0 0 0
73 0 1 0 19.13597608876227 18.350123827508707 10.531168938861772 0 0 0
74 0 1 0 20.849897829280188 24.232816712107887 0.9504803973019498 0 0 0
75 0 1 0 28.2109080805494 20.732109793802774 24.569304443229598 0 0 0
76 0 1 0 19.987627463409503 22.054777523528212 24.645837938713765 0 0 0
77 0 1 0 12.598235962259693 28.55181769866115 20.400061397999554 0 0 0
78 0 1 0 9.813650813798258 28.029227507314285 27.226715431188566 0 0 0
79 0 1 0 25.693885058022047 17.126170176605772 19.542158213230856 0 0 0
80 0 1 0 29.744093986108943 18.98762453300302 15.00552618177865 0 0 0
81 0 1 0 17.695836363218646 23.921756615825814 22.963442184479646 0 0 0
82 0 1 0 25.452894738620564 16.801871995815016 29.062633662979415 0 0 0
83 0 1 0 8.263918081421368 21.671194448914004 27.765102897661322 0 0 0
84 0 1 0 10.450970120938015 29.454822605221917 17.203525964731128 0 0 0
85 0 1 0 16.357016664164615 22.37907461467156 15.107048784898153 0 0 0
86 0 1 0 11.782040079954099 20.747623788541006 15.313014008716223 0 0 0
87 0 1 0 26.740453414032444 26.800529643334695 16.501715526218394 0 0 0
88 0 1 0 11.40051191272238 28.403717125022652 21.27372025571471 0 0 0
89 0 1 0 7.987690506497254 29.11434269934629 24.757747913132306 0 0 0
90 0 1 0 3.4691760146381223 16.441278022919445 28.559731207117313 0 0 0
91 0 1 0 24.789285340713935 23.518721379115583 29.150218795589275 0 0 0
92 0 1 0 27.727297468915253 22.688560058683418 26.628906292202373 0 0 0
93 0 1 0 12.02805304528589 15.487532119959376 18.95234015721471 0 0 0
94 0 1 0 21.98102230764042 15.041924512498975 29.625281570304782 0 0 0
95 0 1 0 2.1073521124698926 18.26695428149167 22.700609030528277 0 0 0
96 0 1 0 27.356355449816377 28.266045063857945 17.41938826042199 0 0 0
97 0 1 0 13.342291067048112 23.885963877609914 21.39489098982648 0 0 0
98 0 1 0 14.030929791755476 17.837010034284095 26.627646212758332 0 0 0
99 0 1 0 14.724037453869375 26.897487182588076 26.06707775782192 0 0 0
100 0 1 0 10.159560209214483 21.728436267808284 29.82835305381024 0 0 0

Velocities

1 0 0 0
2 0 0 0
3 0 0 0
4 0 0 0
5 0 0 0
6 0 0 0
7 0 0 0
8 0 0 0
9 0 0 0
10 0 0 0
11 0 0 0
12 0 0 0
13 0 0 0
14 0 0 0
15 0 0 0
16 0 0 0
17 0 0 0
18 0 0 0
19 0 0 0
20 0 0 0
21 0 0 0
22 0 0 0
23 0 0 0
24 0 0 0
25 0 0 0
26 0 0 0
27 0 0 0
28 0 0 0
29 0 0 0
30 0 0 0
31 0 0 0
32 0 0 0
33 0 0 0
34 0 0 0
35 0 0 0
36 0 0 0
37 0 0 0
38 0 0 0
39 0 0 0
40 0 0 0
41 0 0 0
42 0 0 0
43 0 0 0
44 0 0 0
45 0 0 0
46 0 0 0
47 0 0 0
48 0 0 0
49 0 0 0
50 0 0 0
51 0 0 0
52 0 0 0
53 0 0 0
54 0 0 0
55 0 0 0
56 0 0 0
57 0 0 0
58 0 0 0
59 0 0 0
60 0 0 0
61 0 0 0
62 0 0 0
63 0 0 0
64 0 0 0
65 0 0 0
66 0 0 0
67 0 0 0
68 0 0 0
69 0 0 0
70 0 0 0
71 0 0 0
72 0 0 0
73 0 0 0
74 0 0 0
75 0 0 0
76 0 0 0
77 0 0 0
78 0 0 0
79 0 0 0
80 0 0 0
81 0 0 0
82 0 0 0
83 0 0 0
84 0 0 0
85 0 0 0
86 0 0 0
87 0 0 0
88 0 0 0
89 0 0 0
90 0 0 0
91 0 0 0
92 0 0 0
93 0 0 0
94 0 0 0
95 0 0 0
96 0 0 0
97 0 0 0
98 0 0 0
99 0 0 0
100 0 0 0
