LAMMPS data file via write_data, version 30 Jul 2021, timestep = 1

100 atoms
1 atom types

0 30 xlo xhi
0 30 ylo yhi
0 30 zlo zhi

Masses

1 1

Atoms # full

6 0 1 0 0.520931689434162 11.840521934036905 1.0318452584104842 0 0 0
7 0 1 0 13.329325530227385 4.453884667670682 12.256266995639823 0 0 0
10 0 1 0 8.907596272115107 13.353489576829315 12.398959838245068 0 0 0
17 0 1 0 15.779741762413266 10.067539536866214 12.294637654564559 0 0 0
20 0 1 0 16.405023625502714 11.283327944299765 5.672889262379751 0 0 0
22 0 1 0 28.374512165479643 13.253082739114712 13.499114295619064 0 0 0
25 0 1 0 15.15269926898487 9.656364070179796 3.648215510480146 0 0 0
31 0 1 0 16.905678591379786 7.166301464646053 11.024229904194563 0 0 0
33 0 1 0 2.8058970191451738 3.7562349264849146 1.039581392053246 0 0 0
38 0 1 0 12.553877367583139 1.4473083983854296 4.094202493902058 0 0 0
43 0 1 0 3.728038070252553 11.792889830563354 13.770273527254588 0 0 0
47 0 1 0 19.300632696653217 4.0364350585627005 9.957629130988682 0 0 0
49 0 1 0 5.187823355992197 12.766272820725963 5.532320393385769 0 0 0
50 0 1 0 3.3608415252753234 0.5749813047000718 3.624380098557932 0 0 0
52 0 1 0 6.910160712827707 6.555845638113831 0.28660795465022426 0 0 0
60 0 1 0 1.0778062222402096 4.663615515044239 13.89388671441228 0 0 0
61 0 1 0 21.911835270864387 3.3551191369183178 12.149828728531709 0 0 0
62 0 1 0 28.440510476226656 1.3363037040655823 13.386813626341002 0 0 0
69 0 1 0 7.358443699977948 12.788110613939015 5.6570029042280945 0 0 0
70 0 1 0 4.165515484090251 13.384714686548973 1.2886337807592685 0 0 0
71 0 1 0 22.329026639568408 1.8770787690947066 13.161225475280812 0 0 0
73 0 1 0 2.3426432933955277 8.293062050115822 14.791674695048647 0 0 0
79 0 1 0 1.4245586787226772 7.380966588507148 8.603824080791345 0 0 0
80 0 1 0 12.533558822963625 7.807502815300126 9.94801994194198 0 0 0
85 0 1 0 22.238597837822084 3.2483775452812402 0.7999174622155847 0 0 0
96 0 1 0 12.75703586900437 14.054550643895102 7.832442101066612 0 0 0
100 0 1 0 12.17191450620173 6.051440598989716 6.699986153877023 0 0 0
3 0 1 0 2.1662019312365564 12.00012420238975 17.89478014388081 0 0 0
12 0 1 0 14.89979821609716 13.746382088066854 29.56300231983813 0 0 0
13 0 1 0 8.729203168073669 11.284633143859551 21.77492917018398 0 0 0
19 0 1 0 25.391228407646498 14.501503583725302 21.879091672606872 0 0 0
21 0 1 0 18.017589186792367 14.269361795454685 17.760213293971404 0 0 0
28 0 1 0 23.80975872726207 13.445096913657244 24.869067719255508 0 0 0
29 0 1 0 16.045560860994666 13.895469226219262 20.047129562991568 0 0 0
30 0 1 0 5.998658714225002 13.56261966149122 23.394210706200347 0 0 0
35 0 1 0 10.178048242220779 5.15899061948436 20.46123755525709 0 0 0
36 0 1 0 24.466904693270187 9.212121765425657 29.08937866552875 0 0 0
42 0 1 0 29.838577765209575 6.831754687835638 23.20667919440185 0 0 0
46 0 1 0 15.160477255263482 2.078468321244049 26.047290774900073 0 0 0
55 0 1 0 15.765727172730132 6.766456103791546 16.981857238096026 0 0 0
66 0 1 0 1.2098720724262024 10.767596761836685 20.70491266634609 0 0 0
68 0 1 0 3.6784647916652635 2.457890394247022 18.66638905677066 0 0 0
74 0 1 0 9.38939870611755 1.6965517863384205 22.634704428844266 0 0 0
78 0 1 0 10.188547446694344 3.2541472287129025 21.195261718579427 0 0 0
82 0 1 0 6.5094101594538305 4.753100099439184 17.71140962526978 0 0 0
86 0 1 0 4.931473549532623 2.714101324985523 22.523944492993845 0 0 0
91 0 1 0 20.26711112228829 5.627460547109928 21.476574944308663 0 0 0
94 0 1 0 13.319452910605964 11.701441200126547 22.523054014633367 0 0 0
95 0 1 0 0.20609264754829715 0.31495537578562494 17.909614191229657 0 0 0
2 0 1 0 27.368214728904064 18.66104930764483 5.327598669126498 0 0 0
5 0 1 0 13.177395753335004 22.27887582479055 10.664273576954695 0 0 0
11 0 1 0 6.062135195515667 16.99364435194613 11.967073969990098 0 0 0
24 0 1 0 12.238174435495619 21.314951344430582 0.4141461587949613 0 0 0
32 0 1 0 0.14439008722749058 17.035082240769885 2.82550659832295 0 0 0
37 0 1 0 22.4822783567374 18.742229187678625 7.327555909569723 0 0 0
44 0 1 0 8.30027526459718 19.69519687009469 11.59992854094972 0 0 0
48 0 1 0 19.849152834471045 24.488388440704448 0.9403736331457391 0 0 0
51 0 1 0 26.1719239023569 21.867885549747125 2.998371731660683 0 0 0
53 0 1 0 21.269452314700125 25.037972764361403 10.938204170465243 0 0 0
54 0 1 0 7.432160149960797 22.729951507928398 10.6183692523167 0 0 0
58 0 1 0 21.158344028971065 25.772050536489814 9.81831288908397 0 0 0
65 0 1 0 14.523910995488066 27.42238149529183 9.584202681478711 0 0 0
67 0 1 0 29.911850215313468 29.47378845356959 14.595447950706642 0 0 0
72 0 1 0 13.573553914876161 27.42905236928824 2.7969740866794455 0 0 0
76 0 1 0 8.65047908380474 20.915888829663224 7.583623090915737 0 0 0
89 0 1 0 10.49775176521453 17.941231344896995 8.205278198695716 0 0 0
90 0 1 0 18.072217495406626 29.918580918392014 1.4499788252011192 0 0 0
92 0 1 0 8.749916436959053 21.699845186795738 4.680818118711158 0 0 0
93 0 1 0 29.76226669251732 28.22496815485016 2.0944097903512446 0 0 0
98 0 1 0 25.768046915507128 28.482455182466932 10.768544088423083 0 0 0
99 0 1 0 28.136741462597374 23.614966736296285 3.335098470251009 0 0 0
1 0 1 0 7.101146319616344 24.70006667816845 25.2286535381349 0 0 0
4 0 1 0 20.051648860577835 16.971317216010394 17.511753673922374 0 0 0
8 0 1 0 18.014096573061018 17.35365392773663 17.374764927433056 0 0 0
9 0 1 0 9.346398353227098 16.881383066305588 28.08114337392611 0 0 0
14 0 1 0 10.009872070925322 21.152301296327565 25.22886628931561 0 0 0
15 0 1 0 29.502532479783415 29.814635557338907 25.324791210166616 0 0 0
16 0 1 0 16.27670151219455 17.544156067157573 22.050733549044985 0 0 0
18 0 1 0 9.461834216829315 29.26771460842531 29.70447818921069 0 0 0
23 0 1 0 9.614396609749283 19.73640227134647 26.555962502835676 0 0 0
26 0 1 0 7.446513501280936 26.205916073140965 26.174809372046678 0 0 0
27 0 1 0 26.06941357181598 18.89642068285154 23.24729744483598 0 0 0
34 0 1 0 0.6036377357317402 23.719115208566404 26.830017293214475 0 0 0
39 0 1 0 24.814090125889816 21.83822381176494 15.344099166569771 0 0 0
40 0 1 0 21.42288928292308 28.188483733637824 27.436874514813148 0 0 0
41 0 1 0 4.770882425278532 18.220310131550445 22.91111041169212 0 0 0
45 0 1 0 23.990462218231034 15.994864904156405 21.893004762423498 0 0 0
56 0 1 0 8.546041966405225 28.42313593563765 16.065527433026137 0 0 0
57 0 1 0 21.93309325948781 24.48392998703588 29.561970382023215 0 0 0
59 0 1 0 26.06238394883526 25.178297244929777 26.865004495822696 0 0 0
63 0 1 0 17.51694971560045 24.320445926837106 22.416740984497224 0 0 0
64 0 1 0 14.585625858528937 26.632648906492406 28.76734247945429 0 0 0
75 0 1 0 0.07779039184237391 27.516446335246556 18.370385226392756 0 0 0
77 0 1 0 8.40292346694364 17.679793796035806 22.105712306748902 0 0 0
81 0 1 0 15.83327746824307 19.746128451993375 26.251905005451807 0 0 0
83 0 1 0 25.893573184491597 18.95349689676201 16.762216448515627 0 0 0
84 0 1 0 16.400314232192184 24.497871901062073 15.934698636655428 0 0 0
87 0 1 0 14.318606379380823 18.877142052072337 22.35272596936951 0 0 0
88 0 1 0 7.566088573683963 19.801470782098757 23.10150457367149 0 0 0
97 0 1 0 17.12426883639774 29.719238191476368 19.92969531285823 0 0 0

Velocities

6 0 0 0
7 0 0 0
10 0 0 0
17 0 0 0
20 0 0 0
22 0 0 0
25 0 0 0
31 0 0 0
33 0 0 0
38 0 0 0
43 0 0 0
47 0 0 0
49 0 0 0
50 0 0 0
52 0 0 0
60 0 0 0
61 0 0 0
62 0 0 0
69 0 0 0
70 0 0 0
71 0 0 0
73 0 0 0
79 0 0 0
80 0 0 0
85 0 0 0
96 0 0 0
100 0 0 0
3 0 0 0
12 0 0 0
13 0 0 0
19 0 0 0
21 0 0 0
28 0 0 0
29 0 0 0
30 0 0 0
35 0 0 0
36 0 0 0
42 0 0 0
46 0 0 0
55 0 0 0
66 0 0 0
68 0 0 0
74 0 0 0
78 0 0 0
82 0 0 0
86 0 0 0
91 0 0 0
94 0 0 0
95 0 0 0
2 0 0 0
5 0 0 0
11 0 0 0
24 0 0 0
32 0 0 0
37 0 0 0
44 0 0 0
48 0 0 0
51 0 0 0
53 0 0 0
54 0 0 0
58 0 0 0
65 0 0 0
67 0 0 0
72 0 0 0
76 0 0 0
89 0 0 0
90 0 0 0
92 0 0 0
93 0 0 0
98 0 0 0
99 0 0 0
1 0 0 0
4 0 0 0
8 0 0 0
9 0 0 0
14 0 0 0
15 0 0 0
16 0 0 0
18 0 0 0
23 0 0 0
26 0 0 0
27 0 0 0
34 0 0 0
39 0 0 0
40 0 0 0
41 0 0 0
45 0 0 0
56 0 0 0
57 0 0 0
59 0 0 0
63 0 0 0
64 0 0 0
75 0 0 0
77 0 0 0
81 0 0 0
83 0 0 0
84 0 0 0
87 0 0 0
88 0 0 0
97 0 0 0
