LAMMPS data file via write_data, version 30 Jul 2021, timestep = 1

10 atoms
1 atom types

0 30 xlo xhi
0 30 ylo yhi
0 30 zlo zhi

Masses

1 1

Atoms # full

1 0 1 0 11.026421426378288 10.005392919822455 10.414793006582443 0 0 0
2 0 1 0 25.787540841024597 1.541098819750566 11.847413628710067 0 0 0
4 0 1 0 9.217385455263662 4.217366099865948 10.205925635470244 0 0 0
8 0 1 0 6.894343609235522 2.041539317400164 3.307606898817826 0 0 0
9 0 1 0 16.05580660375159 8.67230451810451 13.798085473311815 0 0 0
6 0 1 0 8.090636067159291 3.0146840091111162 27.718506116240324 0 0 0
10 0 1 0 0.23936324003692944 7.1473020434972785 25.056008622612758 0 0 0
3 0 1 0 29.90985916602656 26.650490936174762 8.458029207835464 0 0 0
5 0 1 0 20.27800062207183 27.32071301097707 5.595732093425462 0 0 0
7 0 1 0 27.277807878845422 29.943929702031785 15.80628239024914 0 0 0

Velocities

1 0 0 0
2 0 0 0
4 0 0 0
8 0 0 0
9 0 0 0
6 0 0 0
10 0 0 0
3 0 0 0
5 0 0 0
7 0 0 0
