ITEM: TIMESTEP
0
ITEM: NUMBER OF ATOMS
10
ITEM: BOX BOUNDS pp pp pp
0.0000000000000000e+00 3.0000000000000000e+01
0.0000000000000000e+00 3.0000000000000000e+01
0.0000000000000000e+00 3.0000000000000000e+01
ITEM: ATOMS id type xs ys zs
1 1 0.367547 0.333513 0.34716
2 1 0.859585 0.05137 0.394914
4 1 0.307246 0.140579 0.340198
8 1 0.229811 0.0680513 0.110254
9 1 0.535194 0.289077 0.459936
6 1 0.269688 0.100489 0.92395
10 1 0.00797877 0.238243 0.8352
3 1 0.996995 0.88835 0.281934
5 1 0.675933 0.91069 0.186524
7 1 0.90926 0.998131 0.526876
