ITEM: TIMESTEP
0
ITEM: NUMBER OF ATOMS
100
ITEM: BOX BOUNDS pp pp pp
0.0000000000000000e+00 3.0000000000000000e+01
0.0000000000000000e+00 3.0000000000000000e+01
0.0000000000000000e+00 3.0000000000000000e+01
ITEM: ATOMS id type xs ys zs
6 1 0.0173644 0.394684 0.0343948
7 1 0.444311 0.148463 0.408542
10 1 0.29692 0.445116 0.413299
17 1 0.525991 0.335585 0.409821
20 1 0.546834 0.376111 0.189096
22 1 0.945817 0.441769 0.44997
25 1 0.50509 0.321879 0.121607
31 1 0.563523 0.238877 0.367474
33 1 0.0935299 0.125208 0.0346527
38 1 0.418463 0.0482436 0.136473
43 1 0.124268 0.393096 0.459009
47 1 0.643354 0.134548 0.331921
49 1 0.172927 0.425542 0.184411
50 1 0.112028 0.019166 0.120813
52 1 0.230339 0.218528 0.0095536
60 1 0.0359269 0.155454 0.46313
61 1 0.730395 0.111837 0.404994
62 1 0.948017 0.0445435 0.446227
69 1 0.245281 0.42627 0.188567
70 1 0.138851 0.446157 0.0429545
71 1 0.744301 0.0625693 0.438708
73 1 0.0780881 0.276435 0.493056
79 1 0.0474853 0.246032 0.286794
80 1 0.417785 0.26025 0.331601
85 1 0.741287 0.108279 0.0266639
96 1 0.425235 0.468485 0.261081
100 1 0.40573 0.201715 0.223333
3 1 0.0722067 0.400004 0.596493
12 1 0.49666 0.458213 0.985433
13 1 0.290973 0.376154 0.725831
19 1 0.846374 0.483383 0.729303
21 1 0.600586 0.475645 0.592007
28 1 0.793659 0.44817 0.828969
29 1 0.534852 0.463182 0.668238
30 1 0.199955 0.452087 0.779807
35 1 0.339268 0.171966 0.682041
36 1 0.815563 0.307071 0.969646
42 1 0.994619 0.227725 0.773556
46 1 0.505349 0.0692823 0.868243
55 1 0.525524 0.225549 0.566062
66 1 0.0403291 0.35892 0.690164
68 1 0.122615 0.0819297 0.622213
74 1 0.31298 0.0565517 0.75449
78 1 0.339618 0.108472 0.706509
82 1 0.21698 0.158437 0.59038
86 1 0.164382 0.09047 0.750798
91 1 0.67557 0.187582 0.715886
94 1 0.443982 0.390048 0.750768
95 1 0.00686975 0.0104985 0.596987
2 1 0.912274 0.622035 0.177587
5 1 0.439247 0.742629 0.355476
11 1 0.202071 0.566455 0.398902
24 1 0.407939 0.710498 0.0138049
32 1 0.004813 0.567836 0.0941836
37 1 0.749409 0.624741 0.244252
44 1 0.276676 0.656507 0.386664
48 1 0.661638 0.81628 0.0313458
51 1 0.872397 0.72893 0.0999457
53 1 0.708982 0.834599 0.364607
54 1 0.247739 0.757665 0.353946
58 1 0.705278 0.859068 0.327277
65 1 0.48413 0.914079 0.319473
67 1 0.997062 0.98246 0.486515
72 1 0.452452 0.914302 0.0932325
76 1 0.288349 0.697196 0.252787
89 1 0.349925 0.598041 0.273509
90 1 0.602407 0.997286 0.0483326
92 1 0.291664 0.723328 0.156027
93 1 0.992076 0.940832 0.0698137
98 1 0.858935 0.949415 0.358951
99 1 0.937891 0.787166 0.11117
1 1 0.236705 0.823336 0.840955
4 1 0.668388 0.565711 0.583725
8 1 0.60047 0.578455 0.579159
9 1 0.311547 0.562713 0.936038
14 1 0.333662 0.705077 0.840962
15 1 0.983418 0.993821 0.84416
16 1 0.542557 0.584805 0.735024
18 1 0.315394 0.97559 0.990149
23 1 0.32048 0.65788 0.885199
26 1 0.248217 0.873531 0.872494
27 1 0.86898 0.629881 0.77491
34 1 0.0201213 0.790637 0.894334
39 1 0.827136 0.727941 0.51147
40 1 0.714096 0.939616 0.914562
41 1 0.159029 0.607344 0.763704
45 1 0.799682 0.533162 0.729767
56 1 0.284868 0.947438 0.535518
57 1 0.731103 0.816131 0.985399
59 1 0.868746 0.839277 0.8955
63 1 0.583898 0.810682 0.747225
64 1 0.486188 0.887755 0.958911
75 1 0.00259301 0.917215 0.612346
77 1 0.280097 0.589326 0.736857
81 1 0.527776 0.658204 0.875064
83 1 0.863119 0.631783 0.558741
84 1 0.546677 0.816596 0.531157
87 1 0.477287 0.629238 0.745091
88 1 0.252203 0.660049 0.77005
97 1 0.570809 0.990641 0.664323
