ITEM: TIMESTEP
0
ITEM: NUMBER OF ATOMS
172
ITEM: BOX BOUNDS pp pp pp
0.0000000000000000e+00 1.0000000000000000e+01
0.0000000000000000e+00 1.0000000000000000e+01
0.0000000000000000e+00 1.0000000000000000e+01
ITEM: ATOMS id type xs ys zs
1 1 0 0 0
2 1 0.14938 0.14938 0
3 1 0.14938 0 0.14938
4 1 0 0.14938 0.14938
5 1 0.29876 0 0
6 1 0.44814 0.14938 0
7 1 0.44814 0 0.14938
8 1 0.29876 0.14938 0.14938
9 1 0.597521 0 0
10 1 0.746901 0.14938 0
11 1 0.746901 0 0.14938
12 1 0.597521 0.14938 0.14938
13 1 0.896281 0 0
14 1 0.896281 0.14938 0.14938
15 1 0 0.29876 0
16 1 0.14938 0.44814 0
17 1 0.14938 0.29876 0.14938
18 1 0 0.44814 0.14938
19 1 0.29876 0.29876 0
20 1 0.44814 0.44814 0
21 1 0.44814 0.29876 0.14938
22 1 0.29876 0.44814 0.14938
23 1 0.597521 0.29876 0
24 1 0.746901 0.44814 0
25 1 0.746901 0.29876 0.14938
26 1 0.597521 0.44814 0.14938
27 1 0.896281 0.29876 0
28 1 0.896281 0.44814 0.14938
29 1 0 0 0.29876
30 1 0.14938 0.14938 0.29876
31 1 0.14938 0 0.44814
32 1 0 0.14938 0.44814
33 1 0.29876 0 0.29876
34 1 0.44814 0.14938 0.29876
35 1 0.44814 0 0.44814
36 1 0.29876 0.14938 0.44814
37 1 0.597521 0 0.29876
38 1 0.746901 0.14938 0.29876
39 1 0.746901 0 0.44814
40 1 0.597521 0.14938 0.44814
41 1 0.896281 0 0.29876
42 1 0.896281 0.14938 0.44814
43 1 0 0.29876 0.29876
44 1 0.14938 0.44814 0.29876
45 1 0.14938 0.29876 0.44814
46 1 0 0.44814 0.44814
47 1 0.29876 0.29876 0.29876
48 1 0.44814 0.44814 0.29876
49 1 0.44814 0.29876 0.44814
50 1 0.29876 0.44814 0.44814
51 1 0.597521 0.29876 0.29876
52 1 0.746901 0.44814 0.29876
53 1 0.746901 0.29876 0.44814
54 1 0.597521 0.44814 0.44814
55 1 0.896281 0.29876 0.29876
56 1 0.896281 0.44814 0.44814
57 1 0 0 0.597521
58 1 0.14938 0.14938 0.597521
59 1 0.14938 0 0.746901
60 1 0 0.14938 0.746901
61 1 0.29876 0 0.597521
62 1 0.44814 0.14938 0.597521
63 1 0.44814 0 0.746901
64 1 0.29876 0.14938 0.746901
65 1 0.597521 0 0.597521
66 1 0.746901 0.14938 0.597521
67 1 0.746901 0 0.746901
68 1 0.597521 0.14938 0.746901
69 1 0.896281 0 0.597521
70 1 0.896281 0.14938 0.746901
71 1 0 0.29876 0.597521
72 1 0.14938 0.44814 0.597521
73 1 0.14938 0.29876 0.746901
74 1 0 0.44814 0.746901
75 1 0.29876 0.29876 0.597521
76 1 0.44814 0.44814 0.597521
77 1 0.44814 0.29876 0.746901
78 1 0.29876 0.44814 0.746901
79 1 0.597521 0.29876 0.597521
80 1 0.746901 0.44814 0.597521
81 1 0.746901 0.29876 0.746901
82 1 0.597521 0.44814 0.746901
83 1 0.896281 0.29876 0.597521
84 1 0.896281 0.44814 0.746901
85 1 0 0 0.896281
86 1 0.14938 0.14938 0.896281
87 1 0.29876 0 0.896281
88 1 0.44814 0.14938 0.896281
89 1 0.597521 0 0.896281
90 1 0.746901 0.14938 0.896281
91 1 0.896281 0 0.896281
92 1 0 0.29876 0.896281
93 1 0.14938 0.44814 0.896281
94 1 0.29876 0.29876 0.896281
95 1 0.44814 0.44814 0.896281
96 1 0.597521 0.29876 0.896281
97 1 0.746901 0.44814 0.896281
98 1 0.896281 0.29876 0.896281
99 1 0 0.597521 0
100 1 0.14938 0.746901 0
101 1 0.14938 0.597521 0.14938
102 1 0 0.746901 0.14938
103 1 0.29876 0.597521 0
104 1 0.44814 0.746901 0
105 1 0.44814 0.597521 0.14938
106 1 0.29876 0.746901 0.14938
107 1 0.597521 0.597521 0
108 1 0.746901 0.746901 0
109 1 0.746901 0.597521 0.14938
110 1 0.597521 0.746901 0.14938
111 1 0.896281 0.597521 0
112 1 0.896281 0.746901 0.14938
113 1 0 0.896281 0
114 1 0.14938 0.896281 0.14938
115 1 0.29876 0.896281 0
116 1 0.44814 0.896281 0.14938
117 1 0.597521 0.896281 0
118 1 0.746901 0.896281 0.14938
119 1 0.896281 0.896281 0
120 1 0 0.597521 0.29876
121 1 0.14938 0.746901 0.29876
122 1 0.14938 0.597521 0.44814
123 1 0 0.746901 0.44814
124 1 0.29876 0.597521 0.29876
125 1 0.44814 0.746901 0.29876
126 1 0.44814 0.597521 0.44814
127 1 0.29876 0.746901 0.44814
128 1 0.597521 0.597521 0.29876
129 1 0.746901 0.746901 0.29876
130 1 0.746901 0.597521 0.44814
131 1 0.597521 0.746901 0.44814
132 1 0.896281 0.597521 0.29876
133 1 0.896281 0.746901 0.44814
134 1 0 0.896281 0.29876
135 1 0.14938 0.896281 0.44814
136 1 0.29876 0.896281 0.29876
137 1 0.44814 0.896281 0.44814
138 1 0.597521 0.896281 0.29876
139 1 0.746901 0.896281 0.44814
140 1 0.896281 0.896281 0.29876
141 1 0 0.597521 0.597521
142 1 0.14938 0.746901 0.597521
143 1 0.14938 0.597521 0.746901
144 1 0 0.746901 0.746901
145 1 0.29876 0.597521 0.597521
146 1 0.44814 0.746901 0.597521
147 1 0.44814 0.597521 0.746901
148 1 0.29876 0.746901 0.746901
149 1 0.597521 0.597521 0.597521
150 1 0.746901 0.746901 0.597521
151 1 0.746901 0.597521 0.746901
152 1 0.597521 0.746901 0.746901
153 1 0.896281 0.597521 0.597521
154 1 0.896281 0.746901 0.746901
155 1 0 0.896281 0.597521
156 1 0.14938 0.896281 0.746901
157 1 0.29876 0.896281 0.597521
158 1 0.44814 0.896281 0.746901
159 1 0.597521 0.896281 0.597521
160 1 0.746901 0.896281 0.746901
161 1 0.896281 0.896281 0.597521
162 1 0 0.597521 0.896281
163 1 0.14938 0.746901 0.896281
164 1 0.29876 0.597521 0.896281
165 1 0.44814 0.746901 0.896281
166 1 0.597521 0.597521 0.896281
167 1 0.746901 0.746901 0.896281
168 1 0.896281 0.597521 0.896281
169 1 0 0.896281 0.896281
170 1 0.29876 0.896281 0.896281
171 1 0.597521 0.896281 0.896281
172 1 0.896281 0.896281 0.896281
